<?xml version="1.0"?>
<VTKFile type="PolyData" version="0.1" byte_order="LittleEndian" header_type="UInt32" compressor="vtkZLibDataCompressor">
  <PolyData>
    <Piece NumberOfPoints="28" NumberOfVerts="0" NumberOfLines="132" NumberOfStrips="0" NumberOfPolys="0">
      <PointData>
        <DataArray type="UInt32" Name="FAGE" format="ascii" RangeMin="0" RangeMax="0">
          0 0 0 0 0 0
          0 0 0 0 0 0
          0 0 0 0 0 0
          0 0 0 0 0 0
          0 0 0 0
        </DataArray>
        <DataArray type="UInt32" Name="FCLR" format="ascii" RangeMin="0" RangeMax="4278203136">
          4278203136 4278203136 4278203136 4278203136 4278203136 4278203136
          4278203136 4278203136 4278203136 4278203136 4278203136 4278203136
          4278203136 4278203136 4278203136 4278203136 4278203136 4278203136
          4278203136 4278203136 0 0 0 0
          0 0 0 0
        </DataArray>
        <DataArray type="UInt32" Name="FPARTICLE_ID" format="ascii" RangeMin="0" RangeMax="20">
          1 2 3 4 5 6
          7 8 9 10 11 12
          13 14 15 16 17 18
          19 20 0 0 0 0
          0 0 0 0
        </DataArray>
        <DataArray type="UInt32" Name="FMASS_RADIUS" NumberOfComponents="2" format="ascii" RangeMin="0" RangeMax="65025.00129950018">
          65025 13 65025 13 65025 13
          65025 13 65025 13 65025 13
          65025 13 65025 13 65025 13
          65025 13 65025 13 65025 13
          65025 13 65025 13 65025 13
          65025 13 65025 13 65025 13
          65025 13 65025 13 0 0
          0 0 0 0 0 0
          0 0 0 0 0 0
          0 0
          <InformationKey name="L2_NORM_RANGE" location="vtkDataArray" length="2">
            <Value index="0">
              0
            </Value>
            <Value index="1">
              65025.0013
            </Value>
          </InformationKey>
        </DataArray>
        <DataArray type="UInt32" Name="FNERVEIDX" format="ascii" RangeMin="0" RangeMax="2">
          0 0 0 0 0 0
          0 0 0 1 0 0
          0 0 0 0 0 0
          0 2 0 0 0 0
          0 0 0 0
        </DataArray>
        <DataArray type="Float32" Name="FVEL" NumberOfComponents="3" format="ascii" RangeMin="0" RangeMax="0">
          0 0 0 0 0 0
          0 0 0 0 0 0
          0 0 0 0 0 0
          0 0 0 0 0 0
          0 0 0 0 0 0
          0 0 0 0 0 0
          0 0 0 0 0 0
          0 0 0 0 0 0
          0 0 0 0 0 0
          0 0 0 0 0 0
          0 0 0 0 0 0
          0 0 0 0 0 0
          0 0 0 0 0 0
          0 0 0 0 0 0
          <InformationKey name="L2_NORM_RANGE" location="vtkDataArray" length="2">
            <Value index="0">
              0
            </Value>
            <Value index="1">
              0
            </Value>
          </InformationKey>
        </DataArray>
        <DataArray type="Float32" Name="FVEVAL" NumberOfComponents="3" format="ascii" RangeMin="0" RangeMax="0">
          0 0 0 0 0 0
          0 0 0 0 0 0
          0 0 0 0 0 0
          0 0 0 0 0 0
          0 0 0 0 0 0
          0 0 0 0 0 0
          0 0 0 0 0 0
          0 0 0 0 0 0
          0 0 0 0 0 0
          0 0 0 0 0 0
          0 0 0 0 0 0
          0 0 0 0 0 0
          0 0 0 0 0 0
          0 0 0 0 0 0
          <InformationKey name="L2_NORM_RANGE" location="vtkDataArray" length="2">
            <Value index="0">
              0
            </Value>
            <Value index="1">
              0
            </Value>
          </InformationKey>
        </DataArray>
        <DataArray type="Float32" Name="FFORCE" NumberOfComponents="3" format="ascii" RangeMin="0" RangeMax="0">
          0 0 0 0 0 0
          0 0 0 0 0 0
          0 0 0 0 0 0
          0 0 0 0 0 0
          0 0 0 0 0 0
          0 0 0 0 0 0
          0 0 0 0 0 0
          0 0 0 0 0 0
          0 0 0 0 0 0
          0 0 0 0 0 0
          0 0 0 0 0 0
          0 0 0 0 0 0
          0 0 0 0 0 0
          0 0 0 0 0 0
          <InformationKey name="L2_NORM_RANGE" location="vtkDataArray" length="2">
            <Value index="0">
              0
            </Value>
            <Value index="1">
              0
            </Value>
          </InformationKey>
        </DataArray>
        <DataArray type="Float32" Name="FPRESS" format="ascii" RangeMin="0" RangeMax="0">
          0 0 0 0 0 0
          0 0 0 0 0 0
          0 0 0 0 0 0
          0 0 0 0 0 0
          0 0 0 0
        </DataArray>
        <DataArray type="Float32" Name="FDENSITY,(1/density,density)" NumberOfComponents="2" format="ascii" RangeMin="0" RangeMax="0">
          0 0 0 0 0 0
          0 0 0 0 0 0
          0 0 0 0 0 0
          0 0 0 0 0 0
          0 0 0 0 0 0
          0 0 0 0 0 0
          0 0 0 0 0 0
          0 0 0 0 0 0
          0 0 0 0 0 0
          0 0
          <InformationKey name="L2_NORM_RANGE" location="vtkDataArray" length="2">
            <Value index="0">
              0
            </Value>
            <Value index="1">
              0
            </Value>
          </InformationKey>
        </DataArray>
        <DataArray type="Float32" Name="FCONC_0" format="ascii" RangeMin="0" RangeMax="0">
          0 0 0 0 0 0
          0 0 0 0 0 0
          0 0 0 0 0 0
          0 0 0 0 0 0
          0 0 0 0
        </DataArray>
        <DataArray type="Float32" Name="FCONC_1" format="ascii" RangeMin="0" RangeMax="0">
          0 0 0 0 0 0
          0 0 0 0 0 0
          0 0 0 0 0 0
          0 0 0 0 0 0
          0 0 0 0
        </DataArray>
        <DataArray type="Float32" Name="FCONC_2" format="ascii" RangeMin="0" RangeMax="0">
          0 0 0 0 0 0
          0 0 0 0 0 0
          0 0 0 0 0 0
          0 0 0 0 0 0
          0 0 0 0
        </DataArray>
        <DataArray type="Float32" Name="FCONC_3" format="ascii" RangeMin="0" RangeMax="0">
          0 0 0 0 0 0
          0 0 0 0 0 0
          0 0 0 0 0 0
          0 0 0 0 0 0
          0 0 0 0
        </DataArray>
        <DataArray type="Float32" Name="FCONC_4" format="ascii" RangeMin="0" RangeMax="0">
          0 0 0 0 0 0
          0 0 0 0 0 0
          0 0 0 0 0 0
          0 0 0 0 0 0
          0 0 0 0
        </DataArray>
        <DataArray type="Float32" Name="FCONC_5" format="ascii" RangeMin="0" RangeMax="0">
          0 0 0 0 0 0
          0 0 0 0 0 0
          0 0 0 0 0 0
          0 0 0 0 0 0
          0 0 0 0
        </DataArray>
        <DataArray type="Float32" Name="FCONC_6" format="ascii" RangeMin="0" RangeMax="0">
          0 0 0 0 0 0
          0 0 0 0 0 0
          0 0 0 0 0 0
          0 0 0 0 0 0
          0 0 0 0
        </DataArray>
        <DataArray type="Float32" Name="FCONC_7" format="ascii" RangeMin="0" RangeMax="0">
          0 0 0 0 0 0
          0 0 0 0 0 0
          0 0 0 0 0 0
          0 0 0 0 0 0
          0 0 0 0
        </DataArray>
        <DataArray type="Float32" Name="FCONC_8" format="ascii" RangeMin="0" RangeMax="0">
          0 0 0 0 0 0
          0 0 0 0 0 0
          0 0 0 0 0 0
          0 0 0 0 0 0
          0 0 0 0
        </DataArray>
        <DataArray type="Float32" Name="FCONC_9" format="ascii" RangeMin="0" RangeMax="0">
          0 0 0 0 0 0
          0 0 0 0 0 0
          0 0 0 0 0 0
          0 0 0 0 0 0
          0 0 0 0
        </DataArray>
        <DataArray type="Float32" Name="FCONC_10" format="ascii" RangeMin="0" RangeMax="0">
          0 0 0 0 0 0
          0 0 0 0 0 0
          0 0 0 0 0 0
          0 0 0 0 0 0
          0 0 0 0
        </DataArray>
        <DataArray type="Float32" Name="FCONC_11" format="ascii" RangeMin="0" RangeMax="0">
          0 0 0 0 0 0
          0 0 0 0 0 0
          0 0 0 0 0 0
          0 0 0 0 0 0
          0 0 0 0
        </DataArray>
        <DataArray type="Float32" Name="FCONC_12" format="ascii" RangeMin="0" RangeMax="0">
          0 0 0 0 0 0
          0 0 0 0 0 0
          0 0 0 0 0 0
          0 0 0 0 0 0
          0 0 0 0
        </DataArray>
        <DataArray type="Float32" Name="FCONC_13" format="ascii" RangeMin="0" RangeMax="0">
          0 0 0 0 0 0
          0 0 0 0 0 0
          0 0 0 0 0 0
          0 0 0 0 0 0
          0 0 0 0
        </DataArray>
        <DataArray type="Float32" Name="FCONC_14" format="ascii" RangeMin="0" RangeMax="0">
          0 0 0 0 0 0
          0 0 0 0 0 0
          0 0 0 0 0 0
          0 0 0 0 0 0
          0 0 0 0
        </DataArray>
        <DataArray type="Float32" Name="FCONC_15" format="ascii" RangeMin="0" RangeMax="0">
          0 0 0 0 0 0
          0 0 0 0 0 0
          0 0 0 0 0 0
          0 0 0 0 0 0
          0 0 0 0
        </DataArray>
        <DataArray type="UInt32" Name="FEPIGEN_0" format="ascii" RangeMin="0" RangeMax="2147483647">
          2147483647 2147483647 2147483647 2147483647 2147483647 2147483647
          2147483647 2147483647 2147483647 2147483647 2147483647 2147483647
          2147483647 2147483647 2147483647 2147483647 2147483647 2147483647
          2147483647 2147483647 0 0 0 0
          0 0 0 0
        </DataArray>
        <DataArray type="UInt32" Name="FEPIGEN_1" format="ascii" RangeMin="0" RangeMax="2147483647">
          2147483647 2147483647 2147483647 2147483647 2147483647 2147483647
          2147483647 2147483647 2147483647 2147483647 2147483647 2147483647
          2147483647 2147483647 2147483647 2147483647 2147483647 2147483647
          2147483647 2147483647 0 0 0 0
          0 0 0 0
        </DataArray>
        <DataArray type="UInt32" Name="FEPIGEN_2" format="ascii" RangeMin="0" RangeMax="2147483647">
          2147483647 2147483647 2147483647 2147483647 2147483647 2147483647
          2147483647 2147483647 2147483647 2147483647 2147483647 2147483647
          2147483647 2147483647 2147483647 2147483647 2147483647 2147483647
          2147483647 2147483647 0 0 0 0
          0 0 0 0
        </DataArray>
        <DataArray type="UInt32" Name="FEPIGEN_3" format="ascii" RangeMin="0" RangeMax="0">
          0 0 0 0 0 0
          0 0 0 0 0 0
          0 0 0 0 0 0
          0 0 0 0 0 0
          0 0 0 0
        </DataArray>
        <DataArray type="UInt32" Name="FEPIGEN_4" format="ascii" RangeMin="0" RangeMax="0">
          0 0 0 0 0 0
          0 0 0 0 0 0
          0 0 0 0 0 0
          0 0 0 0 0 0
          0 0 0 0
        </DataArray>
        <DataArray type="UInt32" Name="FEPIGEN_5" format="ascii" RangeMin="0" RangeMax="0">
          0 0 0 0 0 0
          0 0 0 0 0 0
          0 0 0 0 0 0
          0 0 0 0 0 0
          0 0 0 0
        </DataArray>
        <DataArray type="UInt32" Name="FEPIGEN_6" format="ascii" RangeMin="0" RangeMax="0">
          0 0 0 0 0 0
          0 0 0 0 0 0
          0 0 0 0 0 0
          0 0 0 0 0 0
          0 0 0 0
        </DataArray>
        <DataArray type="UInt32" Name="FEPIGEN_7" format="ascii" RangeMin="0" RangeMax="0">
          0 0 0 0 0 0
          0 0 0 0 0 0
          0 0 0 0 0 0
          0 0 0 0 0 0
          0 0 0 0
        </DataArray>
        <DataArray type="UInt32" Name="FEPIGEN_8" format="ascii" RangeMin="0" RangeMax="0">
          0 0 0 0 0 0
          0 0 0 0 0 0
          0 0 0 0 0 0
          0 0 0 0 0 0
          0 0 0 0
        </DataArray>
        <DataArray type="UInt32" Name="FEPIGEN_9" format="ascii" RangeMin="0" RangeMax="0">
          0 0 0 0 0 0
          0 0 0 0 0 0
          0 0 0 0 0 0
          0 0 0 0 0 0
          0 0 0 0
        </DataArray>
        <DataArray type="UInt32" Name="FEPIGEN_10" format="ascii" RangeMin="0" RangeMax="0">
          0 0 0 0 0 0
          0 0 0 0 0 0
          0 0 0 0 0 0
          0 0 0 0 0 0
          0 0 0 0
        </DataArray>
        <DataArray type="UInt32" Name="FEPIGEN_11" format="ascii" RangeMin="0" RangeMax="0">
          0 0 0 0 0 0
          0 0 0 0 0 0
          0 0 0 0 0 0
          0 0 0 0 0 0
          0 0 0 0
        </DataArray>
        <DataArray type="UInt32" Name="FEPIGEN_12" format="ascii" RangeMin="0" RangeMax="0">
          0 0 0 0 0 0
          0 0 0 0 0 0
          0 0 0 0 0 0
          0 0 0 0 0 0
          0 0 0 0
        </DataArray>
        <DataArray type="UInt32" Name="FEPIGEN_13" format="ascii" RangeMin="0" RangeMax="0">
          0 0 0 0 0 0
          0 0 0 0 0 0
          0 0 0 0 0 0
          0 0 0 0 0 0
          0 0 0 0
        </DataArray>
        <DataArray type="UInt32" Name="FEPIGEN_14" format="ascii" RangeMin="0" RangeMax="0">
          0 0 0 0 0 0
          0 0 0 0 0 0
          0 0 0 0 0 0
          0 0 0 0 0 0
          0 0 0 0
        </DataArray>
        <DataArray type="UInt32" Name="FEPIGEN_15" format="ascii" RangeMin="0" RangeMax="0">
          0 0 0 0 0 0
          0 0 0 0 0 0
          0 0 0 0 0 0
          0 0 0 0 0 0
          0 0 0 0
        </DataArray>
        <DataArray type="UInt32" Name="F_TISSUE_TYPE" format="ascii" RangeMin="0" RangeMax="0">
          0 0 0 0 0 0
          0 0 0 0 0 0
          0 0 0 0 0 0
          0 0 0 0 0 0
          0 0 0 0
        </DataArray>
      </PointData>
      <CellData>
        <DataArray type="UInt32" Name="parent_idx, parent_ID, curr_idx, particle ID, bond index" NumberOfComponents="6" format="ascii" RangeMin="0" RangeMax="92680.49005049553">
          0 1 65535 65535 0 0
          0 1 65535 65535 1 0
          0 1 65535 65535 2 0
          0 1 65535 65535 3 0
          0 1 65535 65535 4 0
          0 1 65535 65535 5 0
          1 2 65535 65535 0 0
          1 2 65535 65535 1 0
          1 2 65535 65535 2 0
          1 2 65535 65535 3 0
          1 2 65535 65535 4 0
          1 2 65535 65535 5 0
          2 3 65535 65535 0 0
          2 3 65535 65535 1 0
          2 3 65535 65535 2 0
          2 3 65535 65535 3 0
          2 3 65535 65535 4 0
          2 3 65535 65535 5 0
          3 4 65535 65535 0 0
          3 4 65535 65535 1 0
          3 4 65535 65535 2 0
          3 4 65535 65535 3 0
          3 4 65535 65535 4 0
          3 4 65535 65535 5 0
          4 5 65535 65535 0 0
          4 5 65535 65535 1 0
          4 5 65535 65535 2 0
          4 5 65535 65535 3 0
          4 5 65535 65535 4 0
          4 5 65535 65535 5 0
          5 6 65535 65535 0 0
          5 6 65535 65535 1 0
          5 6 65535 65535 2 0
          5 6 65535 65535 3 0
          5 6 65535 65535 4 0
          5 6 65535 65535 5 0
          6 7 65535 65535 0 0
          6 7 65535 65535 1 0
          6 7 65535 65535 2 0
          6 7 65535 65535 3 0
          6 7 65535 65535 4 0
          6 7 65535 65535 5 0
          7 8 65535 65535 0 0
          7 8 65535 65535 1 0
          7 8 65535 65535 2 0
          7 8 65535 65535 3 0
          7 8 65535 65535 4 0
          7 8 65535 65535 5 0
          8 9 65535 65535 0 0
          8 9 65535 65535 1 0
          8 9 65535 65535 2 0
          8 9 65535 65535 3 0
          8 9 65535 65535 4 0
          8 9 65535 65535 5 0
          9 10 65535 65535 0 0
          9 10 65535 65535 1 0
          9 10 65535 65535 2 0
          9 10 65535 65535 3 0
          9 10 65535 65535 4 0
          9 10 65535 65535 5 0
          10 11 65535 65535 0 0
          10 11 65535 65535 1 0
          10 11 65535 65535 2 0
          10 11 65535 65535 3 0
          10 11 65535 65535 4 0
          10 11 65535 65535 5 0
          11 12 65535 65535 0 0
          11 12 65535 65535 1 0
          11 12 65535 65535 2 0
          11 12 65535 65535 3 0
          11 12 65535 65535 4 0
          11 12 65535 65535 5 0
          12 13 65535 65535 0 0
          12 13 65535 65535 1 0
          12 13 65535 65535 2 0
          12 13 65535 65535 3 0
          12 13 65535 65535 4 0
          12 13 65535 65535 5 0
          13 14 65535 65535 0 0
          13 14 65535 65535 1 0
          13 14 65535 65535 2 0
          13 14 65535 65535 3 0
          13 14 65535 65535 4 0
          13 14 65535 65535 5 0
          14 15 65535 65535 0 0
          14 15 65535 65535 1 0
          14 15 65535 65535 2 0
          14 15 65535 65535 3 0
          14 15 65535 65535 4 0
          14 15 65535 65535 5 0
          15 16 65535 65535 0 0
          15 16 65535 65535 1 0
          15 16 65535 65535 2 0
          15 16 65535 65535 3 0
          15 16 65535 65535 4 0
          15 16 65535 65535 5 0
          16 17 65535 65535 0 0
          16 17 65535 65535 1 0
          16 17 65535 65535 2 0
          16 17 65535 65535 3 0
          16 17 65535 65535 4 0
          16 17 65535 65535 5 0
          17 18 65535 65535 0 0
          17 18 65535 65535 1 0
          17 18 65535 65535 2 0
          17 18 65535 65535 3 0
          17 18 65535 65535 4 0
          17 18 65535 65535 5 0
          18 19 65535 65535 0 0
          18 19 65535 65535 1 0
          18 19 65535 65535 2 0
          18 19 65535 65535 3 0
          18 19 65535 65535 4 0
          18 19 65535 65535 5 0
          19 20 65535 65535 0 0
          19 20 65535 65535 1 0
          19 20 65535 65535 2 0
          19 20 65535 65535 3 0
          19 20 65535 65535 4 0
          19 20 65535 65535 5 0
          0 0 0 0 0 0
          0 0 0 0 0 0
          0 0 0 0 0 0
          0 0 0 0 0 0
          0 0 0 0 0 0
          0 0 0 0 0 0
          0 0 0 0 0 0
          0 0 0 0 0 0
          0 0 0 0 0 0
          0 0 0 0 0 0
          0 0 0 0 0 0
          0 0 0 0 0 0
          0 0 0 0 0 0
          0 0 0 0 0 0
          0 0 0 0 0 0
          0 0 0 0 0 0
          0 0 0 0 0 0
          0 0 0 0 0 0
          0 0 0 0 0 0
          0 0 0 0 0 0
          0 0 0 0 0 0
          0 0 0 0 0 0
          0 0 0 0 0 0
          0 0 0 0 0 0
          0 0 0 0 0 0
          0 0 0 0 0 0
          0 0 0 0 0 0
          0 0 0 0 0 0
          0 0 0 0 0 0
          0 0 0 0 0 0
          0 0 0 0 0 0
          0 0 0 0 0 0
          0 0 0 0 0 0
          0 0 0 0 0 0
          0 0 0 0 0 0
          0 0 0 0 0 0
          0 0 0 0 0 0
          0 0 0 0 0 0
          0 0 0 0 0 0
          0 0 0 0 0 0
          0 0 0 0 0 0
          0 0 0 0 0 0
          0 0 0 0 0 0
          0 0 0 0 0 0
          0 0 0 0 0 0
          0 0 0 0 0 0
          0 0 0 0 0 0
          0 0 0 0 0 0
          <InformationKey name="L2_NORM_RANGE" location="vtkDataArray" length="2">
            <Value index="0">
              0
            </Value>
            <Value index="1">
              92680.49005
            </Value>
          </InformationKey>
        </DataArray>
        <DataArray type="Float32" Name="elastic_limit" format="ascii" RangeMin="0" RangeMax="0">
          0 0 0 0 0 0
          0 0 0 0 0 0
          0 0 0 0 0 0
          0 0 0 0 0 0
          0 0 0 0 0 0
          0 0 0 0 0 0
          0 0 0 0 0 0
          0 0 0 0 0 0
          0 0 0 0 0 0
          0 0 0 0 0 0
          0 0 0 0 0 0
          0 0 0 0 0 0
          0 0 0 0 0 0
          0 0 0 0 0 0
          0 0 0 0 0 0
          0 0 0 0 0 0
          0 0 0 0 0 0
          0 0 0 0 0 0
          0 0 0 0 0 0
          0 0 0 0 0 0
          0 0 0 0 0 0
          0 0 0 0 0 0
          0 0 0 0 0 0
          0 0 0 0 0 0
          0 0 0 0 0 0
          0 0 0 0 0 0
          0 0 0 0 0 0
          0 0 0 0 0 0
        </DataArray>
        <DataArray type="Float32" Name="restlength" format="ascii" RangeMin="0" RangeMax="0">
          0 0 0 0 0 0
          0 0 0 0 0 0
          0 0 0 0 0 0
          0 0 0 0 0 0
          0 0 0 0 0 0
          0 0 0 0 0 0
          0 0 0 0 0 0
          0 0 0 0 0 0
          0 0 0 0 0 0
          0 0 0 0 0 0
          0 0 0 0 0 0
          0 0 0 0 0 0
          0 0 0 0 0 0
          0 0 0 0 0 0
          0 0 0 0 0 0
          0 0 0 0 0 0
          0 0 0 0 0 0
          0 0 0 0 0 0
          0 0 0 0 0 0
          0 0 0 0 0 0
          0 0 0 0 0 0
          0 0 0 0 0 0
          0 0 0 0 0 0
          0 0 0 0 0 0
          0 0 0 0 0 0
          0 0 0 0 0 0
          0 0 0 0 0 0
          0 0 0 0 0 0
        </DataArray>
        <DataArray type="Float32" Name="modulus" format="ascii" RangeMin="0" RangeMax="0">
          0 0 0 0 0 0
          0 0 0 0 0 0
          0 0 0 0 0 0
          0 0 0 0 0 0
          0 0 0 0 0 0
          0 0 0 0 0 0
          0 0 0 0 0 0
          0 0 0 0 0 0
          0 0 0 0 0 0
          0 0 0 0 0 0
          0 0 0 0 0 0
          0 0 0 0 0 0
          0 0 0 0 0 0
          0 0 0 0 0 0
          0 0 0 0 0 0
          0 0 0 0 0 0
          0 0 0 0 0 0
          0 0 0 0 0 0
          0 0 0 0 0 0
          0 0 0 0 0 0
          0 0 0 0 0 0
          0 0 0 0 0 0
          0 0 0 0 0 0
          0 0 0 0 0 0
          0 0 0 0 0 0
          0 0 0 0 0 0
          0 0 0 0 0 0
          0 0 0 0 0 0
        </DataArray>
        <DataArray type="Float32" Name="damping_coeff" format="ascii" RangeMin="0" RangeMax="0">
          0 0 0 0 0 0
          0 0 0 0 0 0
          0 0 0 0 0 0
          0 0 0 0 0 0
          0 0 0 0 0 0
          0 0 0 0 0 0
          0 0 0 0 0 0
          0 0 0 0 0 0
          0 0 0 0 0 0
          0 0 0 0 0 0
          0 0 0 0 0 0
          0 0 0 0 0 0
          0 0 0 0 0 0
          0 0 0 0 0 0
          0 0 0 0 0 0
          0 0 0 0 0 0
          0 0 0 0 0 0
          0 0 0 0 0 0
          0 0 0 0 0 0
          0 0 0 0 0 0
          0 0 0 0 0 0
          0 0 0 0 0 0
          0 0 0 0 0 0
          0 0 0 0 0 0
          0 0 0 0 0 0
          0 0 0 0 0 0
          0 0 0 0 0 0
          0 0 0 0 0 0
        </DataArray>
        <DataArray type="Float32" Name="strain_integrator" format="ascii" RangeMin="0" RangeMax="0">
          0 0 0 0 0 0
          0 0 0 0 0 0
          0 0 0 0 0 0
          0 0 0 0 0 0
          0 0 0 0 0 0
          0 0 0 0 0 0
          0 0 0 0 0 0
          0 0 0 0 0 0
          0 0 0 0 0 0
          0 0 0 0 0 0
          0 0 0 0 0 0
          0 0 0 0 0 0
          0 0 0 0 0 0
          0 0 0 0 0 0
          0 0 0 0 0 0
          0 0 0 0 0 0
          0 0 0 0 0 0
          0 0 0 0 0 0
          0 0 0 0 0 0
          0 0 0 0 0 0
          0 0 0 0 0 0
          0 0 0 0 0 0
          0 0 0 0 0 0
          0 0 0 0 0 0
          0 0 0 0 0 0
          0 0 0 0 0 0
          0 0 0 0 0 0
          0 0 0 0 0 0
        </DataArray>
        <DataArray type="Float32" Name="strain_sq_integrator" format="ascii" RangeMin="-9.097433917304443e-11" RangeMax="1.7278833643952413e-21">
          3e-45 4.5458e-41 1.7278834e-21 0 -9.097434e-11 4.5458e-41
          3e-45 4.5458e-41 1.7278834e-21 0 -9.097434e-11 4.5458e-41
          3e-45 4.5458e-41 1.7278834e-21 0 -9.097434e-11 4.5458e-41
          3e-45 4.5458e-41 1.7278834e-21 0 -9.097434e-11 4.5458e-41
          3e-45 4.5458e-41 1.7278834e-21 0 -9.097434e-11 4.5458e-41
          3e-45 4.5458e-41 1.7278834e-21 0 -9.097434e-11 4.5458e-41
          3e-45 4.5458e-41 1.7278834e-21 0 -9.097434e-11 4.5458e-41
          3e-45 4.5458e-41 1.7278834e-21 0 -9.097434e-11 4.5458e-41
          3e-45 4.5458e-41 1.7278834e-21 0 -9.097434e-11 4.5458e-41
          3e-45 4.5458e-41 1.7278834e-21 0 -9.097434e-11 4.5458e-41
          3e-45 4.5458e-41 1.7278834e-21 0 -9.097434e-11 4.5458e-41
          3e-45 4.5458e-41 1.7278834e-21 0 -9.097434e-11 4.5458e-41
          3e-45 4.5458e-41 1.7278834e-21 0 -9.097434e-11 4.5458e-41
          3e-45 4.5458e-41 1.7278834e-21 0 -9.097434e-11 4.5458e-41
          3e-45 4.5458e-41 1.7278834e-21 0 -9.097434e-11 4.5458e-41
          3e-45 4.5458e-41 1.7278834e-21 0 -9.097434e-11 4.5458e-41
          3e-45 4.5458e-41 1.7278834e-21 0 -9.097434e-11 4.5458e-41
          3e-45 4.5458e-41 1.7278834e-21 0 -9.097434e-11 4.5458e-41
          3e-45 4.5458e-41 1.7278834e-21 0 -9.097434e-11 4.5458e-41
          3e-45 4.5458e-41 1.7278834e-21 0 -9.097434e-11 4.5458e-41
          0 0 0 0 0 0
          0 0 0 0 0 0
          0 0 0 0 0 0
          0 0 0 0 0 0
          0 0 0 0 0 0
          0 0 0 0 0 0
          0 0 0 0 0 0
          0 0 0 0 0 0
        </DataArray>
      </CellData>
      <Points>
        <DataArray type="Float32" Name="Points" NumberOfComponents="3" format="ascii" RangeMin="0" RangeMax="54.772255750516614">
          4.199658 3.365967 3.796478 4.426346 3.750481 4.412008
          3.532085 3.994428 4.690068 4.554139 3.147197 3.842533
          4.025695 4.718459 3.820811 3.733854 3.228621 4.325737
          3.760514 3.161733 4.166373 4.45842 3.979999 3.2168
          4.245965 3.913278 3.165938 4.563759 4.477946 4.05908
          3.572375 3.849148 4.75001 3.896345 3.692544 4.164284
          3.511002 4.885095 4.640456 3.213716 4.066193 4.251778
          4.127926 3.518151 3.777731 4.398149 3.894531 4.344425
          4.707809 4.410363 4.416426 3.988309 3.575506 4.467413
          4.324654 4.317424 4.587198 3.109967 3.851482 3.243039
          0 0 0 10 0 0
          0 20 0 10 20 0
          0 0 50 10 0 50
          0 20 50 10 20 50
          <InformationKey name="L2_NORM_RANGE" location="vtkDataArray" length="2">
            <Value index="0">
              0
            </Value>
            <Value index="1">
              54.772255751
            </Value>
          </InformationKey>
        </DataArray>
      </Points>
      <Verts>
        <DataArray type="Int64" Name="connectivity" format="ascii" RangeMin="1e+299" RangeMax="-1e+299">
        </DataArray>
        <DataArray type="Int64" Name="offsets" format="ascii" RangeMin="1e+299" RangeMax="-1e+299">
        </DataArray>
      </Verts>
      <Lines>
        <DataArray type="Int64" Name="connectivity" format="ascii" RangeMin="0" RangeMax="27">
          0 0 0 0 0 0
          0 0 0 0 0 0
          1 1 1 1 1 1
          1 1 1 1 1 1
          2 2 2 2 2 2
          2 2 2 2 2 2
          3 3 3 3 3 3
          3 3 3 3 3 3
          4 4 4 4 4 4
          4 4 4 4 4 4
          5 5 5 5 5 5
          5 5 5 5 5 5
          6 6 6 6 6 6
          6 6 6 6 6 6
          7 7 7 7 7 7
          7 7 7 7 7 7
          8 8 8 8 8 8
          8 8 8 8 8 8
          9 9 9 9 9 9
          9 9 9 9 9 9
          10 10 10 10 10 10
          10 10 10 10 10 10
          11 11 11 11 11 11
          11 11 11 11 11 11
          12 12 12 12 12 12
          12 12 12 12 12 12
          13 13 13 13 13 13
          13 13 13 13 13 13
          14 14 14 14 14 14
          14 14 14 14 14 14
          15 15 15 15 15 15
          15 15 15 15 15 15
          16 16 16 16 16 16
          16 16 16 16 16 16
          17 17 17 17 17 17
          17 17 17 17 17 17
          18 18 18 18 18 18
          18 18 18 18 18 18
          19 19 19 19 19 19
          19 19 19 19 19 19
          21 20 22 20 23 22
          23 21 24 20 25 24
          25 21 26 24 26 22
          27 26 27 25 27 23
        </DataArray>
        <DataArray type="Int64" Name="offsets" format="ascii" RangeMin="2" RangeMax="264">
          2 4 6 8 10 12
          14 16 18 20 22 24
          26 28 30 32 34 36
          38 40 42 44 46 48
          50 52 54 56 58 60
          62 64 66 68 70 72
          74 76 78 80 82 84
          86 88 90 92 94 96
          98 100 102 104 106 108
          110 112 114 116 118 120
          122 124 126 128 130 132
          134 136 138 140 142 144
          146 148 150 152 154 156
          158 160 162 164 166 168
          170 172 174 176 178 180
          182 184 186 188 190 192
          194 196 198 200 202 204
          206 208 210 212 214 216
          218 220 222 224 226 228
          230 232 234 236 238 240
          242 244 246 248 250 252
          254 256 258 260 262 264
        </DataArray>
      </Lines>
      <Strips>
        <DataArray type="Int64" Name="connectivity" format="ascii" RangeMin="1e+299" RangeMax="-1e+299">
        </DataArray>
        <DataArray type="Int64" Name="offsets" format="ascii" RangeMin="1e+299" RangeMax="-1e+299">
        </DataArray>
      </Strips>
      <Polys>
        <DataArray type="Int64" Name="connectivity" format="ascii" RangeMin="1e+299" RangeMax="-1e+299">
        </DataArray>
        <DataArray type="Int64" Name="offsets" format="ascii" RangeMin="1e+299" RangeMax="-1e+299">
        </DataArray>
      </Polys>
    </Piece>
  </PolyData>
</VTKFile>
